# Force coefficients
# liftDir    : (0.000000e+00 1.000000e+00 0.000000e+00)
# dragDir    : (1.000000e+00 0.000000e+00 0.000000e+00)
# pitchAxis  : (0.000000e+00 1.000000e+00 0.000000e+00)
# magUInf    : 1.666666e+00
# lRef       : 9.000000e-02
# Aref       : 1.600000e-01
# CofR       : (0.000000e+00 0.000000e+00 0.000000e+00)
# Time       	Cm           	Cd           	Cl           	Cl(f)        	Cl(r)        
0.00027      	3.800790e+03	3.787532e+02	-3.312836e-02	3.800774e+03	-3.800807e+03
0.00054      	-1.844647e+03	-1.838205e+02	3.359516e-02	-1.844630e+03	1.844663e+03
0.00081      	2.299243e+01	2.290975e+00	1.112662e-02	2.299800e+01	-2.298687e+01
0.00108      	-1.852920e+00	-1.846738e-01	-8.905757e-03	-1.857373e+00	1.848468e+00
0.00135      	1.571051e+00	1.566122e-01	5.828925e-03	1.573966e+00	-1.568137e+00
0.00162      	3.991294e+00	3.976520e-01	2.273242e-03	3.992431e+00	-3.990158e+00
0.00189      	4.198520e+00	4.183538e-01	7.034042e-04	4.198871e+00	-4.198168e+00
0.00216      	3.901969e+00	3.888054e-01	-1.305003e-03	3.901316e+00	-3.902621e+00
0.00243      	3.669869e+00	3.656899e-01	3.021759e-03	3.671380e+00	-3.668359e+00
0.0027       	3.636120e+00	3.623259e-01	1.904032e-04	3.636215e+00	-3.636025e+00
0.00297      	3.805888e+00	3.792486e-01	-2.314897e-03	3.804730e+00	-3.807045e+00
0.00324      	3.396444e+00	3.384303e-01	-2.429101e-04	3.396323e+00	-3.396566e+00
0.00351      	3.351500e+00	3.339657e-01	4.200729e-03	3.353600e+00	-3.349399e+00
0.00378      	3.438464e+00	3.426671e-01	-1.899547e-03	3.437514e+00	-3.439413e+00
0.00405      	2.918467e+00	2.908173e-01	-3.168951e-03	2.916882e+00	-2.920051e+00
0.00432      	3.210300e+00	3.199031e-01	2.005288e-04	3.210400e+00	-3.210200e+00
0.00459      	3.239902e+00	3.228743e-01	3.357002e-03	3.241580e+00	-3.238223e+00
0.00486      	2.813278e+00	2.803407e-01	-6.012841e-04	2.812977e+00	-2.813579e+00
0.00513      	3.133062e+00	3.122054e-01	3.365932e-03	3.134745e+00	-3.131379e+00
0.0054       	3.245719e+00	3.234057e-01	8.291332e-04	3.246134e+00	-3.245305e+00
0.00567      	3.016431e+00	3.005719e-01	-7.181191e-04	3.016072e+00	-3.016790e+00
0.00594      	2.840891e+00	2.830900e-01	1.303170e-03	2.841543e+00	-2.840240e+00
0.00621      	2.918554e+00	2.908799e-01	-1.642492e-03	2.917732e+00	-2.919375e+00
0.00648      	3.083015e+00	3.072005e-01	5.959125e-03	3.085995e+00	-3.080035e+00
0.00675      	3.073903e+00	3.063375e-01	-2.551338e-03	3.072628e+00	-3.075179e+00
0.00702      	2.591424e+00	2.582381e-01	-6.934509e-04	2.591077e+00	-2.591771e+00
0.00729      	3.198728e+00	3.187363e-01	2.849660e-03	3.200153e+00	-3.197303e+00
0.00756      	2.645130e+00	2.635419e-01	1.925784e-03	2.646093e+00	-2.644167e+00
0.00783      	2.848177e+00	2.838134e-01	-3.132743e-03	2.846611e+00	-2.849744e+00
0.0081       	2.712715e+00	2.703404e-01	-5.717890e-03	2.709856e+00	-2.715574e+00
0.00837      	2.625891e+00	2.616812e-01	1.791795e-03	2.626787e+00	-2.624995e+00
0.00864      	2.959583e+00	2.949194e-01	1.451573e-03	2.960309e+00	-2.958857e+00
0.00891      	2.691121e+00	2.681467e-01	-1.978469e-03	2.690132e+00	-2.692110e+00
0.00918      	2.977636e+00	2.967653e-01	-2.757357e-03	2.976257e+00	-2.979014e+00
0.00945      	2.721816e+00	2.712268e-01	2.153125e-04	2.721924e+00	-2.721708e+00
0.00972      	2.803603e+00	2.793687e-01	-5.284103e-03	2.800961e+00	-2.806245e+00
0.00999      	2.585609e+00	2.576840e-01	2.052286e-03	2.586635e+00	-2.584583e+00
0.01026      	2.908874e+00	2.898253e-01	2.746068e-03	2.910247e+00	-2.907500e+00
0.01053      	2.758464e+00	2.749698e-01	5.531893e-03	2.761230e+00	-2.755698e+00
0.0108       	2.764541e+00	2.755038e-01	-4.198033e-03	2.762442e+00	-2.766640e+00
0.01107      	2.867395e+00	2.856740e-01	-1.580497e-03	2.866604e+00	-2.868185e+00
0.01134      	2.654868e+00	2.645843e-01	4.742748e-03	2.657239e+00	-2.652497e+00
0.01161      	2.910772e+00	2.900457e-01	-6.833083e-03	2.907355e+00	-2.914188e+00
0.01188      	2.758935e+00	2.748928e-01	3.770464e-04	2.759124e+00	-2.758747e+00
0.01215      	2.861903e+00	2.852282e-01	-2.796465e-04	2.861763e+00	-2.862043e+00
0.01242      	2.778854e+00	2.769225e-01	2.353455e-03	2.780031e+00	-2.777677e+00
0.01269      	2.996269e+00	2.985523e-01	-4.220795e-03	2.994158e+00	-2.998379e+00
0.01296      	2.829782e+00	2.820105e-01	5.143300e-03	2.832353e+00	-2.827210e+00
0.01323      	2.690441e+00	2.680778e-01	-8.797209e-04	2.690001e+00	-2.690881e+00
0.0135       	2.884266e+00	2.874597e-01	-8.842565e-04	2.883823e+00	-2.884708e+00
0.01377      	2.931234e+00	2.920172e-01	1.112298e-03	2.931790e+00	-2.930678e+00
0.01404      	2.786208e+00	2.777112e-01	-3.388527e-03	2.784514e+00	-2.787903e+00
0.01431      	2.506061e+00	2.497749e-01	1.506756e-03	2.506814e+00	-2.505307e+00
0.01458      	2.857441e+00	2.847552e-01	-3.725013e-03	2.855579e+00	-2.859304e+00
0.01485      	2.866245e+00	2.856491e-01	2.324616e-03	2.867407e+00	-2.865083e+00
0.01512      	2.636061e+00	2.626782e-01	-2.025958e-03	2.635048e+00	-2.637074e+00
0.01539      	3.202705e+00	3.191255e-01	7.991801e-03	3.206701e+00	-3.198709e+00
0.01566      	3.049889e+00	3.039002e-01	1.844761e-03	3.050812e+00	-3.048967e+00
0.01593      	2.889932e+00	2.880168e-01	-5.862865e-04	2.889639e+00	-2.890225e+00
0.0162       	2.846214e+00	2.836283e-01	-3.869047e-03	2.844279e+00	-2.848148e+00
0.01647      	2.731071e+00	2.721766e-01	-8.290270e-04	2.730657e+00	-2.731486e+00
0.01674      	2.901296e+00	2.890965e-01	4.281890e-04	2.901510e+00	-2.901082e+00
0.01701      	3.218942e+00	3.207706e-01	6.255361e-04	3.219255e+00	-3.218629e+00
0.01728      	3.116733e+00	3.105934e-01	-5.155308e-03	3.114155e+00	-3.119310e+00
0.01755      	2.907480e+00	2.897500e-01	-1.367895e-03	2.906796e+00	-2.908164e+00
0.01782      	3.086511e+00	3.075347e-01	-6.267146e-03	3.083378e+00	-3.089645e+00
0.01809      	2.673719e+00	2.664543e-01	1.570529e-04	2.673798e+00	-2.673641e+00
0.01836      	3.365276e+00	3.353478e-01	-2.530558e-04	3.365149e+00	-3.365402e+00
0.01863      	2.483767e+00	2.474966e-01	1.133269e-03	2.484334e+00	-2.483201e+00
0.0189       	3.204974e+00	3.193375e-01	1.054572e-02	3.210247e+00	-3.199701e+00
0.01917      	3.318489e+00	3.307075e-01	-4.173359e-03	3.316403e+00	-3.320576e+00
0.01944      	2.824020e+00	2.814056e-01	-7.619018e-04	2.823639e+00	-2.824401e+00
0.01971      	2.931160e+00	2.920639e-01	-1.452367e-03	2.930434e+00	-2.931886e+00
0.01998      	3.419881e+00	3.408196e-01	3.373025e-03	3.421568e+00	-3.418195e+00
0.02025      	2.549675e+00	2.540598e-01	8.484938e-04	2.550099e+00	-2.549251e+00
0.02052      	3.193777e+00	3.182635e-01	-1.249256e-03	3.193152e+00	-3.194402e+00
0.02079      	3.074207e+00	3.063037e-01	-2.550437e-03	3.072931e+00	-3.075482e+00
0.02106      	2.910460e+00	2.900481e-01	-1.249842e-03	2.909835e+00	-2.911085e+00
0.02133      	3.025280e+00	3.014876e-01	5.850381e-03	3.028205e+00	-3.022354e+00
0.0216       	3.048943e+00	3.038436e-01	-1.405526e-03	3.048240e+00	-3.049646e+00
0.02187      	3.202744e+00	3.191959e-01	-4.340655e-03	3.200574e+00	-3.204915e+00
0.02214      	3.017868e+00	3.007537e-01	1.985258e-03	3.018861e+00	-3.016876e+00
0.02241      	3.332383e+00	3.320535e-01	-7.775836e-03	3.328495e+00	-3.336271e+00
0.02268      	3.145852e+00	3.135315e-01	7.989660e-03	3.149847e+00	-3.141857e+00
0.02295      	3.068481e+00	3.057418e-01	8.122360e-03	3.072542e+00	-3.064420e+00
0.02322      	3.112277e+00	3.101647e-01	-4.183824e-03	3.110185e+00	-3.114369e+00
0.02349      	3.148111e+00	3.136569e-01	-4.415305e-04	3.147890e+00	-3.148331e+00
0.02376      	3.498380e+00	3.486423e-01	2.110694e-03	3.499436e+00	-3.497325e+00
0.02403      	3.041505e+00	3.030628e-01	2.025394e-03	3.042518e+00	-3.040493e+00
0.0243       	3.070303e+00	3.059885e-01	-3.125435e-03	3.068740e+00	-3.071866e+00
0.02457      	3.114492e+00	3.103848e-01	1.805150e-03	3.115394e+00	-3.113589e+00
0.02484      	3.059738e+00	3.049015e-01	3.193013e-03	3.061334e+00	-3.058141e+00
0.02511      	3.200051e+00	3.188816e-01	-5.721669e-03	3.197191e+00	-3.202912e+00
0.02538      	3.021105e+00	3.010873e-01	6.373658e-03	3.024292e+00	-3.017918e+00
0.02565      	3.536316e+00	3.523902e-01	-1.995889e-03	3.535318e+00	-3.537313e+00
0.02592      	3.349084e+00	3.337433e-01	6.265638e-03	3.352217e+00	-3.345951e+00
0.02619      	3.157925e+00	3.146962e-01	-7.291050e-04	3.157561e+00	-3.158290e+00
0.02646      	3.091216e+00	3.080355e-01	7.674053e-04	3.091600e+00	-3.090832e+00
0.02673      	3.494187e+00	3.482142e-01	-3.794778e-03	3.492290e+00	-3.496085e+00
0.027        	3.364522e+00	3.353157e-01	-3.045564e-03	3.362999e+00	-3.366045e+00
0.02727      	3.399557e+00	3.387343e-01	4.069781e-03	3.401592e+00	-3.397522e+00
0.02754      	3.328466e+00	3.317285e-01	-2.582066e-03	3.327175e+00	-3.329757e+00
0.02781      	3.473081e+00	3.460926e-01	6.532692e-03	3.476347e+00	-3.469815e+00
0.02808      	3.182126e+00	3.170758e-01	-6.557876e-03	3.178847e+00	-3.185405e+00
0.02835      	3.557822e+00	3.545283e-01	3.921942e-03	3.559783e+00	-3.555861e+00
0.02862      	3.213738e+00	3.202523e-01	-3.544767e-03	3.211966e+00	-3.215510e+00
0.02889      	3.205992e+00	3.195052e-01	-1.739351e-03	3.205122e+00	-3.206862e+00
0.02916      	3.379236e+00	3.367058e-01	4.986729e-05	3.379261e+00	-3.379211e+00
0.02943      	3.281769e+00	3.270387e-01	8.383303e-03	3.285960e+00	-3.277577e+00
0.0297       	3.343454e+00	3.331943e-01	-1.364573e-03	3.342772e+00	-3.344136e+00
0.02997      	3.476588e+00	3.463970e-01	1.588413e-03	3.477382e+00	-3.475794e+00
0.03024      	3.464862e+00	3.453044e-01	1.825232e-04	3.464953e+00	-3.464771e+00
0.03051      	3.299311e+00	3.287610e-01	1.109833e-03	3.299866e+00	-3.298756e+00
0.03078      	3.309032e+00	3.297268e-01	-3.348671e-03	3.307357e+00	-3.310706e+00
0.03105      	3.282907e+00	3.271166e-01	1.374504e-03	3.283594e+00	-3.282220e+00
0.03132      	3.397952e+00	3.385714e-01	-5.003862e-03	3.395450e+00	-3.400454e+00
0.03159      	2.931443e+00	2.921450e-01	-4.743557e-04	2.931206e+00	-2.931680e+00
0.03186      	3.616107e+00	3.604205e-01	4.148830e-03	3.618181e+00	-3.614032e+00
0.03213      	3.544578e+00	3.532603e-01	1.546470e-03	3.545351e+00	-3.543805e+00
0.0324       	3.380144e+00	3.368207e-01	-1.033221e-02	3.374978e+00	-3.385310e+00
0.03267      	3.505451e+00	3.493197e-01	6.493263e-03	3.508698e+00	-3.502205e+00
0.03294      	3.496535e+00	3.484045e-01	-5.043668e-03	3.494013e+00	-3.499057e+00
0.03321      	3.424867e+00	3.413270e-01	3.688253e-03	3.426711e+00	-3.423022e+00
0.03348      	3.564429e+00	3.552068e-01	-4.372135e-03	3.562243e+00	-3.566615e+00
0.03375      	3.330348e+00	3.318582e-01	-9.182373e-05	3.330302e+00	-3.330394e+00
0.03402      	3.484182e+00	3.472207e-01	2.660748e-03	3.485513e+00	-3.482852e+00
0.03429      	3.344069e+00	3.331980e-01	-4.544895e-04	3.343841e+00	-3.344296e+00
0.03456      	3.377209e+00	3.365628e-01	5.154042e-03	3.379786e+00	-3.374632e+00
0.03483      	3.715474e+00	3.702500e-01	-1.221251e-03	3.714863e+00	-3.716084e+00
0.0351       	3.338756e+00	3.326689e-01	-5.036131e-03	3.336237e+00	-3.341274e+00
0.03537      	3.246955e+00	3.235858e-01	1.107625e-03	3.247509e+00	-3.246401e+00
0.03564      	3.472938e+00	3.461251e-01	-3.264043e-03	3.471306e+00	-3.474570e+00
0.03591      	3.589398e+00	3.576638e-01	4.479642e-03	3.591637e+00	-3.587158e+00
0.03618      	3.397644e+00	3.386041e-01	-3.484875e-03	3.395902e+00	-3.399387e+00
0.03645      	3.544514e+00	3.531845e-01	-8.311187e-05	3.544472e+00	-3.544555e+00
0.03672      	3.467967e+00	3.455999e-01	-2.647529e-03	3.466643e+00	-3.469291e+00
0.03699      	3.413359e+00	3.401655e-01	1.392678e-03	3.414055e+00	-3.412663e+00
0.03726      	3.333217e+00	3.321658e-01	1.339727e-03	3.333887e+00	-3.332547e+00
0.03753      	3.671479e+00	3.658915e-01	8.909518e-04	3.671925e+00	-3.671034e+00
0.0378       	3.408158e+00	3.396001e-01	3.127623e-03	3.409722e+00	-3.406594e+00
0.03807      	3.759808e+00	3.746704e-01	-1.072846e-04	3.759754e+00	-3.759861e+00
0.03834      	3.277349e+00	3.265954e-01	-5.513138e-04	3.277074e+00	-3.277625e+00
0.03861      	3.570994e+00	3.558274e-01	2.318988e-03	3.572153e+00	-3.569834e+00
0.03888      	3.720111e+00	3.707049e-01	3.898263e-04	3.720306e+00	-3.719916e+00
0.03915      	3.501822e+00	3.489361e-01	-1.871438e-03	3.500886e+00	-3.502758e+00
0.03942      	3.318935e+00	3.307284e-01	-4.721866e-03	3.316574e+00	-3.321296e+00
0.03969      	3.716054e+00	3.703453e-01	6.192732e-03	3.719150e+00	-3.712958e+00
0.03996      	3.611363e+00	3.598075e-01	-9.366477e-04	3.610895e+00	-3.611832e+00
0.04023      	3.487066e+00	3.475086e-01	-5.903366e-03	3.484114e+00	-3.490018e+00
0.0405       	3.655700e+00	3.643414e-01	-3.877532e-06	3.655698e+00	-3.655702e+00
0.04077      	3.737258e+00	3.724343e-01	-2.668791e-03	3.735924e+00	-3.738593e+00
0.04104      	3.763248e+00	3.750062e-01	2.990033e-03	3.764743e+00	-3.761753e+00
0.04131      	3.750872e+00	3.737649e-01	3.647075e-04	3.751054e+00	-3.750689e+00
0.04158      	3.575144e+00	3.562972e-01	-3.582819e-03	3.573352e+00	-3.576935e+00
0.04185      	3.500471e+00	3.488374e-01	-5.189297e-04	3.500212e+00	-3.500731e+00
0.04212      	3.357042e+00	3.344883e-01	-2.207459e-03	3.355939e+00	-3.358146e+00
0.04239      	3.767279e+00	3.754181e-01	4.561218e-03	3.769559e+00	-3.764998e+00
0.04266      	3.715408e+00	3.702513e-01	-2.170207e-03	3.714322e+00	-3.716493e+00
0.04293      	3.479854e+00	3.467869e-01	2.240399e-03	3.480974e+00	-3.478734e+00
0.0432       	3.811285e+00	3.798489e-01	-1.309974e-03	3.810630e+00	-3.811940e+00
0.04347      	4.008794e+00	3.994569e-01	3.539206e-03	4.010564e+00	-4.007025e+00
0.04374      	3.583796e+00	3.571116e-01	-3.234014e-03	3.582179e+00	-3.585413e+00
0.04401      	3.557936e+00	3.545214e-01	5.508834e-03	3.560690e+00	-3.555181e+00
0.04428      	3.501447e+00	3.489082e-01	-6.583623e-03	3.498155e+00	-3.504739e+00
0.04455      	3.880908e+00	3.867815e-01	4.396203e-03	3.883106e+00	-3.878709e+00
0.04482      	3.740228e+00	3.727259e-01	-2.748607e-03	3.738853e+00	-3.741602e+00
0.04509      	3.857313e+00	3.844208e-01	-1.362853e-03	3.856631e+00	-3.857994e+00
0.04536      	3.799529e+00	3.786013e-01	2.334854e-03	3.800697e+00	-3.798362e+00
0.04563      	3.473427e+00	3.461283e-01	-4.283293e-03	3.471286e+00	-3.475569e+00
0.0459       	3.638331e+00	3.625718e-01	2.708983e-03	3.639686e+00	-3.636977e+00
0.04617      	3.714285e+00	3.701506e-01	-5.517398e-05	3.714258e+00	-3.714313e+00
0.04644      	3.692627e+00	3.679746e-01	5.997849e-03	3.695626e+00	-3.689628e+00
0.04671      	3.889036e+00	3.875312e-01	-8.635590e-03	3.884718e+00	-3.893354e+00
0.04698      	3.406584e+00	3.394467e-01	1.357441e-03	3.407263e+00	-3.405906e+00
0.04725      	3.878792e+00	3.865268e-01	-1.823755e-03	3.877880e+00	-3.879704e+00
0.04752      	3.657288e+00	3.644570e-01	4.256285e-03	3.659416e+00	-3.655160e+00
0.04779      	3.508397e+00	3.496293e-01	-3.982681e-03	3.506406e+00	-3.510388e+00
0.04806      	3.778627e+00	3.765695e-01	4.000624e-03	3.780628e+00	-3.776627e+00
0.04833      	3.801892e+00	3.788719e-01	3.057802e-03	3.803421e+00	-3.800363e+00
0.0486       	4.031916e+00	4.017617e-01	3.830642e-03	4.033831e+00	-4.030000e+00
0.04887      	3.723059e+00	3.709784e-01	-1.473127e-03	3.722322e+00	-3.723795e+00
0.04914      	3.935986e+00	3.922267e-01	4.740040e-04	3.936223e+00	-3.935749e+00
0.04941      	3.790506e+00	3.777625e-01	3.447548e-04	3.790678e+00	-3.790334e+00
0.04968      	3.674971e+00	3.662104e-01	-2.159439e-03	3.673892e+00	-3.676051e+00
0.04995      	3.573471e+00	3.560747e-01	1.056787e-03	3.573999e+00	-3.572943e+00
0.05022      	3.719809e+00	3.706376e-01	-2.730786e-03	3.718444e+00	-3.721174e+00
0.05049      	3.712882e+00	3.699681e-01	-1.569147e-04	3.712804e+00	-3.712961e+00
0.05076      	3.792994e+00	3.779861e-01	6.601075e-03	3.796295e+00	-3.789694e+00
0.05103      	3.886030e+00	3.872567e-01	-1.552319e-03	3.885253e+00	-3.886806e+00
0.0513       	4.066083e+00	4.052089e-01	2.697409e-03	4.067432e+00	-4.064734e+00
0.05157      	3.680662e+00	3.668412e-01	3.163214e-03	3.682243e+00	-3.679080e+00
0.05184      	3.806306e+00	3.793317e-01	-1.264758e-04	3.806242e+00	-3.806369e+00
0.05211      	4.102174e+00	4.087855e-01	1.515195e-03	4.102932e+00	-4.101417e+00
0.05238      	3.653323e+00	3.640622e-01	-2.037682e-03	3.652304e+00	-3.654342e+00
0.05265      	3.613524e+00	3.600974e-01	-7.560535e-03	3.609743e+00	-3.617304e+00
0.05292      	3.807526e+00	3.794213e-01	2.515609e-03	3.808783e+00	-3.806268e+00
0.05319      	3.843098e+00	3.830098e-01	-1.604624e-04	3.843018e+00	-3.843178e+00
0.05346      	3.701032e+00	3.687739e-01	7.984686e-03	3.705025e+00	-3.697040e+00
0.05373      	3.711094e+00	3.697941e-01	-4.690073e-03	3.708749e+00	-3.713439e+00
0.054        	3.851221e+00	3.837240e-01	4.021347e-03	3.853232e+00	-3.849210e+00
0.05427      	3.658288e+00	3.645465e-01	-5.338450e-03	3.655619e+00	-3.660957e+00
0.05454      	3.847860e+00	3.834217e-01	-3.010589e-03	3.846355e+00	-3.849366e+00
0.05481      	3.699506e+00	3.687056e-01	-9.888200e-04	3.699012e+00	-3.700001e+00
0.05508      	3.430260e+00	3.418520e-01	1.812610e-05	3.430269e+00	-3.430251e+00
0.05535      	3.666970e+00	3.654122e-01	-2.742858e-03	3.665599e+00	-3.668342e+00
0.05562      	3.741977e+00	3.728906e-01	3.836139e-03	3.743895e+00	-3.740059e+00
0.05589      	3.898872e+00	3.884846e-01	7.575361e-03	3.902659e+00	-3.895084e+00
0.05616      	3.502115e+00	3.489923e-01	-5.023182e-03	3.499604e+00	-3.504627e+00
0.05643      	4.148371e+00	4.133415e-01	6.483158e-03	4.151613e+00	-4.145129e+00
0.0567       	3.700696e+00	3.687539e-01	-4.796787e-03	3.698298e+00	-3.703094e+00
0.05697      	3.900932e+00	3.887355e-01	1.633010e-03	3.901749e+00	-3.900116e+00
0.05724      	3.506712e+00	3.494759e-01	-2.301455e-03	3.505561e+00	-3.507863e+00
0.05751      	3.957703e+00	3.943642e-01	-2.932231e-03	3.956237e+00	-3.959169e+00
0.05778      	3.561911e+00	3.549460e-01	-4.039893e-03	3.559891e+00	-3.563931e+00
0.05805      	3.679062e+00	3.665964e-01	7.541854e-03	3.682833e+00	-3.675291e+00
0.05832      	3.843523e+00	3.830720e-01	-4.046032e-03	3.841500e+00	-3.845546e+00
0.05859      	3.562194e+00	3.549818e-01	-5.660560e-03	3.559364e+00	-3.565025e+00
0.05886      	3.689137e+00	3.676409e-01	-5.485800e-03	3.686394e+00	-3.691880e+00
0.05913      	3.527278e+00	3.514975e-01	6.896679e-03	3.530727e+00	-3.523830e+00
0.0594       	3.881560e+00	3.868478e-01	-2.175866e-03	3.880472e+00	-3.882648e+00
0.05967      	3.895252e+00	3.881609e-01	-1.702077e-03	3.894401e+00	-3.896103e+00
0.05994      	3.666638e+00	3.654000e-01	7.969970e-04	3.667037e+00	-3.666240e+00
0.06021      	3.865679e+00	3.852128e-01	7.410884e-04	3.866049e+00	-3.865308e+00
0.06048      	3.916441e+00	3.903051e-01	2.737926e-03	3.917809e+00	-3.915072e+00
0.06075      	3.566539e+00	3.553859e-01	-5.878723e-05	3.566509e+00	-3.566568e+00
0.06102      	3.872992e+00	3.859653e-01	5.031889e-03	3.875508e+00	-3.870476e+00
0.06129      	3.557660e+00	3.545256e-01	-2.975714e-03	3.556172e+00	-3.559148e+00
0.06156      	3.847603e+00	3.834217e-01	1.828840e-03	3.848517e+00	-3.846688e+00
0.06183      	3.533764e+00	3.521668e-01	-7.445154e-03	3.530041e+00	-3.537486e+00
0.0621       	3.944640e+00	3.930676e-01	4.429278e-04	3.944862e+00	-3.944419e+00
0.06237      	3.620131e+00	3.607745e-01	7.904145e-03	3.624083e+00	-3.616179e+00
0.06264      	3.745005e+00	3.731640e-01	-6.816100e-04	3.744664e+00	-3.745345e+00
0.06291      	3.623845e+00	3.610674e-01	-2.391157e-03	3.622650e+00	-3.625041e+00
0.06318      	3.994501e+00	3.980420e-01	-5.252086e-04	3.994239e+00	-3.994764e+00
0.06345      	3.897493e+00	3.884518e-01	3.957885e-03	3.899472e+00	-3.895514e+00
0.06372      	3.783677e+00	3.770333e-01	1.864596e-04	3.783770e+00	-3.783583e+00
0.06399      	3.914093e+00	3.900425e-01	3.623628e-03	3.915905e+00	-3.912281e+00
0.06426      	3.799321e+00	3.785736e-01	-6.511470e-03	3.796065e+00	-3.802577e+00
0.06453      	3.701277e+00	3.688772e-01	-1.732833e-03	3.700410e+00	-3.702143e+00
0.0648       	3.880504e+00	3.866599e-01	6.448230e-03	3.883728e+00	-3.877280e+00
0.06507      	3.991772e+00	3.977899e-01	-1.094288e-03	3.991225e+00	-3.992320e+00
0.06534      	3.826606e+00	3.813316e-01	4.556257e-03	3.828884e+00	-3.824328e+00
0.06561      	3.731107e+00	3.718342e-01	-5.010794e-03	3.728602e+00	-3.733612e+00
0.06588      	3.909240e+00	3.895571e-01	7.262026e-04	3.909603e+00	-3.908877e+00
0.06615      	3.671126e+00	3.658578e-01	5.556334e-04	3.671404e+00	-3.670848e+00
0.06642      	3.592741e+00	3.579727e-01	2.865501e-03	3.594174e+00	-3.591308e+00
0.06669      	4.072485e+00	4.058696e-01	-1.464351e-03	4.071753e+00	-4.073217e+00
0.06696      	3.764122e+00	3.751245e-01	-7.559377e-03	3.760342e+00	-3.767901e+00
0.06723      	3.634545e+00	3.621504e-01	4.532155e-03	3.636811e+00	-3.632279e+00
0.0675       	3.867861e+00	3.854075e-01	8.052658e-04	3.868263e+00	-3.867458e+00
0.06777      	3.866167e+00	3.852651e-01	1.741200e-03	3.867038e+00	-3.865297e+00
0.06804      	3.776275e+00	3.763551e-01	3.029542e-03	3.777789e+00	-3.774760e+00
0.06831      	3.612905e+00	3.600088e-01	-4.977876e-03	3.610416e+00	-3.615394e+00
0.06858      	3.850136e+00	3.836859e-01	1.650075e-03	3.850961e+00	-3.849311e+00
0.06885      	3.669155e+00	3.656431e-01	-7.968885e-03	3.665171e+00	-3.673140e+00
0.06912      	3.906553e+00	3.892900e-01	-3.700803e-03	3.904702e+00	-3.908403e+00
0.06939      	3.801281e+00	3.787705e-01	7.210907e-03	3.804886e+00	-3.797676e+00
0.06966      	3.770358e+00	3.757520e-01	-2.332070e-04	3.770242e+00	-3.770475e+00
0.06993      	4.045077e+00	4.030425e-01	7.234339e-04	4.045439e+00	-4.044716e+00
0.0702       	3.669911e+00	3.657396e-01	-3.620810e-03	3.668101e+00	-3.671722e+00
0.07047      	3.860166e+00	3.846806e-01	2.893148e-03	3.861612e+00	-3.858719e+00
0.07074      	3.869594e+00	3.855441e-01	4.493366e-05	3.869617e+00	-3.869572e+00
0.07101      	4.063532e+00	4.049577e-01	2.276946e-03	4.064671e+00	-4.062394e+00
0.07128      	4.186705e+00	4.171952e-01	-1.955295e-03	4.185727e+00	-4.187682e+00
0.07155      	3.960823e+00	3.946990e-01	1.556561e-04	3.960901e+00	-3.960746e+00
0.07182      	3.933437e+00	3.919580e-01	3.502912e-03	3.935189e+00	-3.931686e+00
0.07209      	4.050870e+00	4.036717e-01	-5.802680e-04	4.050579e+00	-4.051160e+00
0.07236      	3.716616e+00	3.704153e-01	-7.578431e-03	3.712827e+00	-3.720405e+00
0.07263      	3.753950e+00	3.740477e-01	1.864237e-03	3.754882e+00	-3.753018e+00
0.0729       	4.106250e+00	4.091735e-01	7.787874e-03	4.110144e+00	-4.102356e+00
0.07317      	3.866990e+00	3.853784e-01	-1.882069e-03	3.866049e+00	-3.867931e+00
0.07344      	3.844005e+00	3.830252e-01	-2.908667e-03	3.842550e+00	-3.845459e+00
0.07371      	3.923316e+00	3.910140e-01	-4.300952e-03	3.921166e+00	-3.925467e+00
0.07398      	4.097856e+00	4.083798e-01	2.062488e-03	4.098887e+00	-4.096825e+00
0.07425      	4.027325e+00	4.013470e-01	3.650493e-03	4.029150e+00	-4.025500e+00
0.07452      	4.079694e+00	4.065430e-01	-6.411040e-03	4.076489e+00	-4.082900e+00
0.07479      	3.835432e+00	3.822231e-01	5.378834e-03	3.838121e+00	-3.832743e+00
0.07506      	4.045908e+00	4.031942e-01	-5.466948e-03	4.043175e+00	-4.048642e+00
0.07533      	4.199891e+00	4.184913e-01	6.622163e-03	4.203202e+00	-4.196580e+00
0.0756       	4.148990e+00	4.134360e-01	-2.008240e-03	4.147986e+00	-4.149994e+00
0.07587      	4.231081e+00	4.216315e-01	-8.055133e-04	4.230678e+00	-4.231484e+00
0.07614      	4.090898e+00	4.076896e-01	4.869054e-03	4.093332e+00	-4.088463e+00
0.07641      	4.086987e+00	4.072706e-01	-2.718672e-03	4.085628e+00	-4.088347e+00
0.07668      	4.266792e+00	4.251924e-01	-8.256537e-04	4.266379e+00	-4.267205e+00
0.07695      	4.222302e+00	4.207503e-01	-4.250009e-03	4.220177e+00	-4.224427e+00
0.07722      	3.886798e+00	3.873074e-01	3.693499e-03	3.888645e+00	-3.884951e+00
0.07749      	4.487160e+00	4.471942e-01	-2.150078e-03	4.486085e+00	-4.488235e+00
0.07776      	4.000947e+00	3.986940e-01	1.200706e-03	4.001547e+00	-4.000346e+00
0.07803      	4.568707e+00	4.552831e-01	2.316177e-03	4.569865e+00	-4.567549e+00
0.0783       	4.110717e+00	4.096179e-01	2.784723e-03	4.112109e+00	-4.109325e+00
0.07857      	4.527734e+00	4.511988e-01	-7.376266e-03	4.524046e+00	-4.531423e+00
0.07884      	4.135147e+00	4.120661e-01	1.436914e-03	4.135866e+00	-4.134429e+00
0.07911      	4.228645e+00	4.214367e-01	1.592202e-03	4.229441e+00	-4.227849e+00
0.07938      	4.336368e+00	4.320991e-01	5.742493e-04	4.336655e+00	-4.336081e+00
0.07965      	4.223615e+00	4.208927e-01	2.799279e-03	4.225015e+00	-4.222215e+00
0.07992      	4.381545e+00	4.366434e-01	5.649216e-05	4.381573e+00	-4.381517e+00
0.08019      	4.419469e+00	4.403579e-01	1.329861e-03	4.420134e+00	-4.418805e+00
0.08046      	4.615062e+00	4.599199e-01	-5.526316e-03	4.612299e+00	-4.617825e+00
0.08073      	4.634319e+00	4.617699e-01	-1.205377e-04	4.634259e+00	-4.634379e+00
0.081        	4.571675e+00	4.555699e-01	5.101340e-03	4.574226e+00	-4.569125e+00
0.08127      	4.429929e+00	4.414224e-01	-1.942277e-03	4.428958e+00	-4.430900e+00
0.08154      	4.703566e+00	4.687466e-01	2.744811e-03	4.704939e+00	-4.702194e+00
0.08181      	4.554245e+00	4.538358e-01	1.949506e-03	4.555220e+00	-4.553270e+00
0.08208      	5.038110e+00	5.021013e-01	-7.240840e-03	5.034489e+00	-5.041730e+00
0.08235      	4.746350e+00	4.729807e-01	3.044316e-03	4.747873e+00	-4.744828e+00
0.08262      	4.879130e+00	4.862195e-01	1.641083e-03	4.879950e+00	-4.878309e+00
0.08289      	4.697565e+00	4.681277e-01	-3.449751e-03	4.695841e+00	-4.699290e+00
0.08316      	4.485020e+00	4.469662e-01	-5.406948e-03	4.482316e+00	-4.487723e+00
0.08343      	4.767637e+00	4.750818e-01	3.180591e-03	4.769227e+00	-4.766047e+00
0.0837       	4.747717e+00	4.731437e-01	1.297238e-03	4.748366e+00	-4.747069e+00
0.08397      	4.759659e+00	4.743003e-01	1.116070e-05	4.759665e+00	-4.759654e+00
0.08424      	4.857417e+00	4.840732e-01	5.059886e-03	4.859947e+00	-4.854887e+00
0.08451      	4.933533e+00	4.916056e-01	2.660876e-04	4.933666e+00	-4.933400e+00
0.08478      	4.834658e+00	4.817770e-01	-1.851167e-04	4.834566e+00	-4.834751e+00
0.08505      	5.157097e+00	5.139370e-01	7.869492e-03	5.161032e+00	-5.153163e+00
0.08532      	4.912228e+00	4.894771e-01	-2.716172e-03	4.910870e+00	-4.913586e+00
0.08559      	5.176846e+00	5.158883e-01	2.539802e-03	5.178116e+00	-5.175576e+00
0.08586      	4.789545e+00	4.772610e-01	4.858770e-04	4.789788e+00	-4.789302e+00
0.08613      	5.178002e+00	5.159887e-01	1.104322e-03	5.178554e+00	-5.177450e+00
0.0864       	5.146329e+00	5.128819e-01	-3.647225e-03	5.144505e+00	-5.148152e+00
0.08667      	4.991996e+00	4.974440e-01	-6.135656e-03	4.988928e+00	-4.995064e+00
0.08694      	5.324471e+00	5.305908e-01	4.910417e-03	5.326926e+00	-5.322016e+00
0.08721      	5.068885e+00	5.051282e-01	-1.959610e-03	5.067905e+00	-5.069865e+00
0.08748      	5.478259e+00	5.459300e-01	4.083139e-03	5.480301e+00	-5.476218e+00
0.08775      	5.398768e+00	5.379328e-01	1.570418e-03	5.399553e+00	-5.397983e+00
0.08802      	5.471468e+00	5.452798e-01	1.159597e-04	5.471526e+00	-5.471410e+00
0.08829      	5.180759e+00	5.162748e-01	-6.119586e-03	5.177699e+00	-5.183819e+00
0.08856      	5.393850e+00	5.375003e-01	-1.336199e-03	5.393182e+00	-5.394518e+00
0.08883      	5.384285e+00	5.365623e-01	5.796513e-03	5.387183e+00	-5.381387e+00
0.0891       	5.334186e+00	5.315094e-01	-2.955465e-03	5.332708e+00	-5.335663e+00
0.08937      	5.720907e+00	5.700752e-01	4.328430e-04	5.721123e+00	-5.720691e+00
0.08964      	5.684341e+00	5.664473e-01	2.138953e-03	5.685411e+00	-5.683272e+00
0.08991      	5.626050e+00	5.606575e-01	-1.771477e-03	5.625165e+00	-5.626936e+00
0.09018      	5.639193e+00	5.619175e-01	-6.399736e-04	5.638873e+00	-5.639513e+00
0.09045      	5.791403e+00	5.771437e-01	6.510674e-04	5.791729e+00	-5.791078e+00
0.09072      	5.546263e+00	5.526771e-01	-8.084771e-04	5.545858e+00	-5.546667e+00
0.09099      	5.853707e+00	5.833547e-01	3.934880e-05	5.853727e+00	-5.853688e+00
0.09126      	5.809488e+00	5.788879e-01	9.297170e-04	5.809953e+00	-5.809023e+00
0.09153      	5.904960e+00	5.884329e-01	-5.919517e-03	5.902000e+00	-5.907920e+00
0.0918       	5.946892e+00	5.926026e-01	6.085338e-04	5.947196e+00	-5.946587e+00
0.09207      	5.887651e+00	5.867089e-01	4.653763e-03	5.889978e+00	-5.885324e+00
0.09234      	5.898352e+00	5.877519e-01	-8.619394e-04	5.897921e+00	-5.898782e+00
0.09261      	6.022304e+00	6.001324e-01	-3.018172e-03	6.020795e+00	-6.023813e+00
0.09288      	6.199078e+00	6.177363e-01	-3.388410e-03	6.197384e+00	-6.200772e+00
0.09315      	6.150072e+00	6.128672e-01	4.903920e-03	6.152524e+00	-6.147620e+00
0.09342      	6.186091e+00	6.164460e-01	-4.172215e-03	6.184005e+00	-6.188177e+00
0.09369      	6.080903e+00	6.060207e-01	8.004649e-03	6.084905e+00	-6.076901e+00
0.09396      	6.188473e+00	6.166798e-01	-3.146456e-03	6.186900e+00	-6.190047e+00
0.09423      	6.583668e+00	6.560263e-01	-5.216406e-03	6.581059e+00	-6.586276e+00
0.0945       	5.998036e+00	5.977437e-01	-4.679718e-03	5.995696e+00	-6.000376e+00
0.09477      	6.242356e+00	6.220806e-01	2.865752e-05	6.242371e+00	-6.242342e+00
0.09504      	6.199324e+00	6.177971e-01	-2.036226e-03	6.198305e+00	-6.200342e+00
0.09531      	6.469783e+00	6.446715e-01	4.520125e-03	6.472043e+00	-6.467523e+00
0.09558      	6.232266e+00	6.210811e-01	-4.586013e-03	6.229973e+00	-6.234559e+00
0.09585      	6.220945e+00	6.199637e-01	6.492980e-03	6.224192e+00	-6.217699e+00
0.09612      	6.750080e+00	6.726734e-01	1.011868e-03	6.750586e+00	-6.749574e+00
0.09639      	6.454566e+00	6.431315e-01	-1.986116e-04	6.454466e+00	-6.454665e+00
0.09666      	6.560733e+00	6.537982e-01	2.187380e-03	6.561826e+00	-6.559639e+00
0.09693      	6.758796e+00	6.735786e-01	3.070704e-03	6.760331e+00	-6.757261e+00
0.0972       	6.946407e+00	6.921731e-01	3.025596e-03	6.947920e+00	-6.944894e+00
0.09747      	6.599230e+00	6.576054e-01	-7.361882e-03	6.595549e+00	-6.602911e+00
0.09774      	6.882166e+00	6.858300e-01	8.209283e-03	6.886271e+00	-6.878061e+00
0.09801      	6.862236e+00	6.838523e-01	4.693286e-03	6.864582e+00	-6.859889e+00
0.09828      	6.953201e+00	6.928977e-01	1.230097e-03	6.953816e+00	-6.952586e+00
0.09855      	6.777390e+00	6.753739e-01	-1.878844e-03	6.776451e+00	-6.778330e+00
0.09882      	6.993096e+00	6.968485e-01	-4.675764e-05	6.993072e+00	-6.993119e+00
0.09909      	6.884872e+00	6.860801e-01	2.057000e-03	6.885901e+00	-6.883844e+00