# Force coefficients
# liftDir    : (0.000000e+00 1.000000e+00 0.000000e+00)
# dragDir    : (1.000000e+00 0.000000e+00 0.000000e+00)
# pitchAxis  : (0.000000e+00 1.000000e+00 0.000000e+00)
# magUInf    : 1.666666e+00
# lRef       : 9.000000e-02
# Aref       : 1.600000e-01
# CofR       : (0.000000e+00 0.000000e+00 0.000000e+00)
# Time       	Cm           	Cd           	Cl           	Cl(f)        	Cl(r)        
0.00027      	3.800809e+03	3.787550e+02	-3.499229e-02	3.800791e+03	-3.800826e+03
0.00054      	-1.844534e+03	-1.838093e+02	3.041403e-02	-1.844519e+03	1.844550e+03
0.00081      	2.307281e+01	2.298965e+00	1.538625e-02	2.308050e+01	-2.306511e+01
0.00108      	-1.907622e+00	-1.901199e-01	-1.410506e-02	-1.914675e+00	1.900570e+00
0.00135      	1.629901e+00	1.624879e-01	1.182769e-02	1.635815e+00	-1.623987e+00
0.00162      	4.081048e+00	4.065434e-01	3.726361e-03	4.082912e+00	-4.079185e+00
0.00189      	4.195004e+00	4.180175e-01	-4.797785e-05	4.194980e+00	-4.195028e+00
0.00216      	3.851240e+00	3.837510e-01	-3.039125e-03	3.849721e+00	-3.852760e+00
0.00243      	3.550772e+00	3.538274e-01	4.577182e-03	3.553060e+00	-3.548483e+00
0.0027       	3.575750e+00	3.563187e-01	4.831929e-04	3.575991e+00	-3.575508e+00
0.00297      	4.006787e+00	3.992744e-01	-4.172915e-03	4.004700e+00	-4.008873e+00
0.00324      	3.303774e+00	3.291822e-01	-3.164359e-03	3.302192e+00	-3.305356e+00
0.00351      	3.302225e+00	3.290525e-01	8.269441e-03	3.306360e+00	-3.298091e+00
0.00378      	3.514655e+00	3.502875e-01	-2.713059e-03	3.513299e+00	-3.516012e+00
0.00405      	2.557173e+00	2.548103e-01	-6.488366e-03	2.553928e+00	-2.560417e+00
0.00432      	3.208230e+00	3.196944e-01	1.061722e-03	3.208761e+00	-3.207699e+00
0.00459      	3.298852e+00	3.287710e-01	5.335779e-03	3.301520e+00	-3.296184e+00
0.00486      	2.486004e+00	2.477310e-01	-2.163886e-03	2.484923e+00	-2.487086e+00
0.00513      	3.176448e+00	3.165278e-01	5.328760e-03	3.179112e+00	-3.173784e+00
0.0054       	3.414731e+00	3.402171e-01	2.783996e-03	3.416123e+00	-3.413339e+00
0.00567      	3.006580e+00	2.995771e-01	-1.360522e-03	3.005899e+00	-3.007260e+00
0.00594      	2.657291e+00	2.647878e-01	1.071086e-03	2.657827e+00	-2.656756e+00
0.00621      	2.852557e+00	2.843483e-01	-3.563616e-03	2.850775e+00	-2.854339e+00
0.00648      	3.221352e+00	3.209628e-01	1.318903e-02	3.227946e+00	-3.214757e+00
0.00675      	3.256426e+00	3.245532e-01	-3.427584e-03	3.254712e+00	-3.258140e+00
0.00702      	2.320567e+00	2.312411e-01	3.543181e-04	2.320744e+00	-2.320390e+00
0.00729      	3.492910e+00	3.480359e-01	4.710520e-03	3.495265e+00	-3.490555e+00
0.00756      	2.452118e+00	2.442624e-01	3.739575e-03	2.453988e+00	-2.450248e+00
0.00783      	2.842950e+00	2.832814e-01	-4.922845e-03	2.840489e+00	-2.845412e+00
0.0081       	2.574595e+00	2.565965e-01	-1.098457e-02	2.569103e+00	-2.580088e+00
0.00837      	2.446194e+00	2.437848e-01	4.239439e-03	2.448314e+00	-2.444074e+00
0.00864      	3.129757e+00	3.118756e-01	2.577203e-03	3.131046e+00	-3.128469e+00
0.00891      	2.562501e+00	2.553069e-01	-5.827666e-03	2.559587e+00	-2.565414e+00
0.00918      	3.164472e+00	3.154278e-01	-4.822936e-03	3.162060e+00	-3.166883e+00
0.00945      	2.647985e+00	2.638676e-01	1.754091e-03	2.648862e+00	-2.647108e+00
0.00972      	2.834408e+00	2.824314e-01	-1.087682e-02	2.828970e+00	-2.839847e+00
0.00999      	2.393732e+00	2.385874e-01	4.055607e-03	2.395760e+00	-2.391704e+00
0.01026      	3.038311e+00	3.026743e-01	4.800929e-03	3.040711e+00	-3.035910e+00
0.01053      	2.738895e+00	2.731006e-01	8.825573e-03	2.743308e+00	-2.734482e+00
0.0108       	2.754309e+00	2.744944e-01	-7.568185e-03	2.750525e+00	-2.758093e+00
0.01107      	2.944766e+00	2.933252e-01	-3.339873e-03	2.943096e+00	-2.946436e+00
0.01134      	2.506776e+00	2.498515e-01	1.060603e-02	2.512079e+00	-2.501473e+00
0.01161      	3.058387e+00	3.047388e-01	-1.130057e-02	3.052737e+00	-3.064037e+00
0.01188      	2.737110e+00	2.726806e-01	1.327474e-03	2.737773e+00	-2.736446e+00
0.01215      	2.927308e+00	2.917808e-01	-9.395884e-05	2.927261e+00	-2.927355e+00
0.01242      	2.770956e+00	2.761387e-01	4.884600e-03	2.773398e+00	-2.768514e+00
0.01269      	3.212913e+00	3.201159e-01	-8.573111e-03	3.208626e+00	-3.217200e+00
0.01296      	2.862156e+00	2.852594e-01	8.996665e-03	2.866655e+00	-2.857658e+00
0.01323      	2.590922e+00	2.581307e-01	-1.540286e-03	2.590152e+00	-2.591692e+00
0.0135       	2.977247e+00	2.967649e-01	-1.384859e-03	2.976554e+00	-2.977939e+00
0.01377      	3.068886e+00	3.056483e-01	2.671396e-03	3.070222e+00	-3.067551e+00
0.01404      	2.775762e+00	2.767407e-01	-7.074567e-03	2.772225e+00	-2.779299e+00
0.01431      	2.197142e+00	2.190357e-01	4.363213e-03	2.199324e+00	-2.194961e+00
0.01458      	2.870492e+00	2.860641e-01	-7.807215e-03	2.866588e+00	-2.874396e+00
0.01485      	2.879284e+00	2.869778e-01	5.540763e-03	2.882054e+00	-2.876514e+00
0.01512      	2.446714e+00	2.437978e-01	-4.210147e-03	2.444608e+00	-2.448819e+00
0.01539      	3.553246e+00	3.540323e-01	1.453965e-02	3.560516e+00	-3.545976e+00
0.01566      	3.229521e+00	3.217741e-01	4.115285e-03	3.231578e+00	-3.227463e+00
0.01593      	2.915876e+00	2.906300e-01	-2.129836e-04	2.915770e+00	-2.915983e+00
0.0162       	2.798640e+00	2.788851e-01	-8.909191e-03	2.794185e+00	-2.803094e+00
0.01647      	2.561509e+00	2.553059e-01	-1.748037e-03	2.560635e+00	-2.562383e+00
0.01674      	2.901402e+00	2.890868e-01	7.942562e-04	2.901799e+00	-2.901005e+00
0.01701      	3.480129e+00	3.468014e-01	1.925319e-04	3.480225e+00	-3.480032e+00
0.01728      	3.307246e+00	3.295852e-01	-9.996782e-03	3.302248e+00	-3.312245e+00
0.01755      	2.865834e+00	2.856121e-01	-3.670374e-03	2.863999e+00	-2.867669e+00
0.01782      	3.214964e+00	3.202962e-01	-1.239750e-02	3.208765e+00	-3.221163e+00
0.01809      	2.352699e+00	2.344745e-01	1.045921e-03	2.353222e+00	-2.352176e+00
0.01836      	3.754780e+00	3.741585e-01	-1.901473e-03	3.753829e+00	-3.755730e+00
0.01863      	1.979359e+00	1.972082e-01	2.011953e-03	1.980365e+00	-1.978353e+00
0.0189       	3.421091e+00	3.408349e-01	2.127834e-02	3.431731e+00	-3.410452e+00
0.01917      	3.620963e+00	3.608681e-01	-9.618817e-03	3.616154e+00	-3.625773e+00
0.01944      	2.624671e+00	2.615293e-01	-1.076966e-03	2.624133e+00	-2.625210e+00
0.01971      	2.846312e+00	2.835788e-01	-4.256694e-03	2.844183e+00	-2.848440e+00
0.01998      	3.806128e+00	3.793344e-01	7.153636e-03	3.809705e+00	-3.802551e+00
0.02025      	2.058090e+00	2.050537e-01	1.757980e-03	2.058969e+00	-2.057211e+00
0.02052      	3.368431e+00	3.356679e-01	-1.734763e-03	3.367563e+00	-3.369298e+00
0.02079      	3.090273e+00	3.078612e-01	-4.097078e-03	3.088225e+00	-3.092322e+00
0.02106      	2.749149e+00	2.739908e-01	-2.172899e-03	2.748063e+00	-2.750235e+00
0.02133      	2.958372e+00	2.948361e-01	1.094824e-02	2.963846e+00	-2.952898e+00
0.0216       	2.998059e+00	2.987869e-01	-2.536256e-03	2.996791e+00	-2.999327e+00
0.02187      	3.282645e+00	3.271944e-01	-8.979777e-03	3.278156e+00	-3.287135e+00
0.02214      	2.931980e+00	2.922119e-01	4.751748e-03	2.934356e+00	-2.929604e+00
0.02241      	3.554148e+00	3.541330e-01	-1.538788e-02	3.546454e+00	-3.561842e+00
0.02268      	3.098064e+00	3.088119e-01	1.539422e-02	3.105761e+00	-3.090366e+00
0.02295      	3.023999e+00	3.012742e-01	1.327366e-02	3.030636e+00	-3.017362e+00
0.02322      	3.054760e+00	3.044505e-01	-6.617366e-03	3.051451e+00	-3.058069e+00
0.02349      	3.097170e+00	3.085268e-01	-6.215495e-05	3.097139e+00	-3.097201e+00
0.02376      	3.851922e+00	3.838973e-01	3.964593e-03	3.853905e+00	-3.849940e+00
0.02403      	2.882739e+00	2.872103e-01	4.409003e-03	2.884944e+00	-2.880535e+00
0.0243       	2.938603e+00	2.928926e-01	-6.303678e-03	2.935451e+00	-2.941755e+00
0.02457      	3.032452e+00	3.022326e-01	1.912791e-03	3.033408e+00	-3.031495e+00
0.02484      	2.914732e+00	2.904444e-01	8.119445e-03	2.918792e+00	-2.910673e+00
0.02511      	3.178171e+00	3.166943e-01	-1.265902e-02	3.171842e+00	-3.184501e+00
0.02538      	2.815590e+00	2.806346e-01	1.198854e-02	2.821585e+00	-2.809596e+00
0.02565      	3.850071e+00	3.836513e-01	-4.211892e-03	3.847965e+00	-3.852177e+00
0.02592      	3.454498e+00	3.442544e-01	1.185775e-02	3.460426e+00	-3.448569e+00
0.02619      	3.068330e+00	3.057755e-01	-1.278578e-03	3.067691e+00	-3.068969e+00
0.02646      	2.887803e+00	2.877559e-01	3.368193e-05	2.887820e+00	-2.887786e+00
0.02673      	3.718766e+00	3.706127e-01	-7.791299e-03	3.714870e+00	-3.722661e+00
0.027        	3.458512e+00	3.447146e-01	-4.175117e-03	3.456425e+00	-3.460600e+00
0.02727      	3.456984e+00	3.444211e-01	5.722551e-03	3.459845e+00	-3.454123e+00
0.02754      	3.372992e+00	3.362039e-01	-3.010440e-03	3.371487e+00	-3.374497e+00
0.02781      	3.634884e+00	3.622150e-01	1.278199e-02	3.641275e+00	-3.628493e+00
0.02808      	3.042382e+00	3.031264e-01	-1.243367e-02	3.036165e+00	-3.048599e+00
0.02835      	3.754595e+00	3.741239e-01	8.018698e-03	3.758604e+00	-3.750585e+00
0.02862      	3.107275e+00	3.096390e-01	-7.541879e-03	3.103504e+00	-3.111046e+00
0.02889      	3.085496e+00	3.075181e-01	-2.393378e-03	3.084300e+00	-3.086693e+00
0.02916      	3.396699e+00	3.384055e-01	-5.953689e-04	3.396401e+00	-3.396997e+00
0.02943      	3.254981e+00	3.243746e-01	1.683217e-02	3.263397e+00	-3.246565e+00
0.0297       	3.310674e+00	3.299530e-01	-1.859820e-03	3.309744e+00	-3.311604e+00
0.02997      	3.605010e+00	3.591391e-01	4.045527e-03	3.607033e+00	-3.602987e+00
0.03024      	3.574653e+00	3.562751e-01	-1.439229e-03	3.573933e+00	-3.575372e+00
0.03051      	3.217769e+00	3.206144e-01	3.258665e-03	3.219399e+00	-3.216140e+00
0.03078      	3.221378e+00	3.209690e-01	-7.343094e-03	3.217707e+00	-3.225050e+00
0.03105      	3.236796e+00	3.224921e-01	3.549358e-03	3.238570e+00	-3.235021e+00
0.03132      	3.413327e+00	3.400619e-01	-9.070884e-03	3.408792e+00	-3.417863e+00
0.03159      	2.466071e+00	2.457965e-01	-1.368490e-03	2.465387e+00	-2.466756e+00
0.03186      	3.804424e+00	3.792553e-01	5.760220e-03	3.807304e+00	-3.801544e+00
0.03213      	3.653663e+00	3.641650e-01	3.561302e-03	3.655443e+00	-3.651882e+00
0.0324       	3.322137e+00	3.310277e-01	-1.849434e-02	3.312890e+00	-3.331384e+00
0.03267      	3.563837e+00	3.551317e-01	1.231167e-02	3.569993e+00	-3.557681e+00
0.03294      	3.546944e+00	3.533997e-01	-9.168245e-03	3.542360e+00	-3.551529e+00
0.03321      	3.354107e+00	3.343051e-01	5.874741e-03	3.357044e+00	-3.351170e+00
0.03348      	3.672408e+00	3.659744e-01	-8.464800e-03	3.668176e+00	-3.676641e+00
0.03375      	3.187792e+00	3.176446e-01	5.418421e-04	3.188063e+00	-3.187521e+00
0.03402      	3.555308e+00	3.543203e-01	6.608641e-03	3.558612e+00	-3.552004e+00
0.03429      	3.231034e+00	3.218996e-01	-1.776633e-03	3.230146e+00	-3.231923e+00
0.03456      	3.291580e+00	3.280488e-01	1.013209e-02	3.296646e+00	-3.286514e+00
0.03483      	3.969167e+00	3.955339e-01	-3.047705e-03	3.967643e+00	-3.970690e+00
0.0351       	3.224387e+00	3.212313e-01	-7.384557e-03	3.220694e+00	-3.228079e+00
0.03537      	3.019882e+00	3.009782e-01	1.919970e-03	3.020842e+00	-3.018922e+00
0.03564      	3.469127e+00	3.457899e-01	-9.123227e-03	3.464566e+00	-3.473689e+00
0.03591      	3.675146e+00	3.661821e-01	9.960168e-03	3.680126e+00	-3.670166e+00
0.03618      	3.330622e+00	3.319541e-01	-6.688822e-03	3.327277e+00	-3.333966e+00
0.03645      	3.594793e+00	3.581635e-01	-1.075748e-03	3.594255e+00	-3.595331e+00
0.03672      	3.478124e+00	3.466207e-01	-4.557666e-03	3.475845e+00	-3.480403e+00
0.03699      	3.314641e+00	3.303488e-01	1.945435e-03	3.315614e+00	-3.313669e+00
0.03726      	3.152771e+00	3.141926e-01	3.179196e-03	3.154361e+00	-3.151182e+00
0.03753      	3.825293e+00	3.812378e-01	-2.790325e-04	3.825153e+00	-3.825432e+00
0.0378       	3.275856e+00	3.263987e-01	6.561427e-03	3.279136e+00	-3.272575e+00
0.03807      	3.983875e+00	3.970010e-01	-7.486180e-05	3.983838e+00	-3.983913e+00
0.03834      	3.020837e+00	3.010303e-01	-7.301375e-04	3.020472e+00	-3.021203e+00
0.03861      	3.608746e+00	3.595657e-01	4.630142e-03	3.611061e+00	-3.606431e+00
0.03888      	3.886544e+00	3.872863e-01	-6.031035e-04	3.886243e+00	-3.886846e+00
0.03915      	3.432157e+00	3.419661e-01	-2.386262e-03	3.430964e+00	-3.433351e+00
0.03942      	3.030497e+00	3.019736e-01	-1.030591e-02	3.025344e+00	-3.035650e+00
0.03969      	3.852560e+00	3.839877e-01	1.260626e-02	3.858863e+00	-3.846257e+00
0.03996      	3.598225e+00	3.584334e-01	-1.523664e-03	3.597463e+00	-3.598987e+00
0.04023      	3.389485e+00	3.378031e-01	-1.223918e-02	3.383365e+00	-3.395605e+00
0.0405       	3.723436e+00	3.711315e-01	2.057194e-03	3.724464e+00	-3.722407e+00
0.04077      	3.858511e+00	3.845375e-01	-7.145392e-03	3.854939e+00	-3.862084e+00
0.04104      	3.922153e+00	3.908351e-01	6.422804e-03	3.925364e+00	-3.918942e+00
0.04131      	3.871217e+00	3.857480e-01	-7.489322e-04	3.870843e+00	-3.871592e+00
0.04158      	3.535224e+00	3.523427e-01	-7.366264e-03	3.531541e+00	-3.538907e+00
0.04185      	3.378305e+00	3.366735e-01	7.963651e-04	3.378703e+00	-3.377906e+00
0.04212      	3.093404e+00	3.081787e-01	-4.998019e-03	3.090905e+00	-3.095903e+00
0.04239      	3.886632e+00	3.873208e-01	7.801332e-03	3.890533e+00	-3.882731e+00
0.04266      	3.823292e+00	3.810037e-01	-4.558978e-03	3.821012e+00	-3.825571e+00
0.04293      	3.334568e+00	3.323229e-01	5.389816e-03	3.337263e+00	-3.331873e+00
0.0432       	3.933722e+00	3.921044e-01	-1.839412e-03	3.932803e+00	-3.934642e+00
0.04347      	4.353781e+00	4.338056e-01	6.595477e-03	4.357079e+00	-4.350483e+00
0.04374      	3.489876e+00	3.477272e-01	-8.351230e-03	3.485701e+00	-3.494052e+00
0.04401      	3.478287e+00	3.465541e-01	1.158105e-02	3.484077e+00	-3.472496e+00
0.04428      	3.339218e+00	3.327256e-01	-1.248009e-02	3.332978e+00	-3.345458e+00
0.04455      	4.078341e+00	4.065013e-01	8.063682e-03	4.082373e+00	-4.074309e+00
0.04482      	3.828222e+00	3.815008e-01	-6.464351e-03	3.824990e+00	-3.831455e+00
0.04509      	4.010204e+00	3.996901e-01	-7.798605e-04	4.009814e+00	-4.010594e+00
0.04536      	3.907262e+00	3.893123e-01	5.372233e-03	3.909948e+00	-3.904576e+00
0.04563      	3.250155e+00	3.238786e-01	-9.719397e-03	3.245295e+00	-3.255015e+00
0.0459       	3.553092e+00	3.540863e-01	6.318871e-03	3.556251e+00	-3.549933e+00
0.04617      	3.719838e+00	3.707139e-01	-9.560696e-04	3.719360e+00	-3.720317e+00
0.04644      	3.643313e+00	3.630649e-01	1.109936e-02	3.648862e+00	-3.637763e+00
0.04671      	4.066025e+00	4.051500e-01	-1.715588e-02	4.057447e+00	-4.074603e+00
0.04698      	3.083787e+00	3.072515e-01	1.838965e-03	3.084707e+00	-3.082868e+00
0.04725      	4.025392e+00	4.011408e-01	-2.656583e-03	4.024064e+00	-4.026720e+00
0.04752      	3.587717e+00	3.575257e-01	9.328746e-03	3.592381e+00	-3.583052e+00
0.04779      	3.283088e+00	3.271899e-01	-7.145486e-03	3.279515e+00	-3.286661e+00
0.04806      	3.824007e+00	3.811174e-01	7.826114e-03	3.827920e+00	-3.820094e+00
0.04833      	3.849232e+00	3.836035e-01	6.777423e-03	3.852621e+00	-3.845843e+00
0.0486       	4.326935e+00	4.311295e-01	7.283105e-03	4.330577e+00	-4.323294e+00
0.04887      	3.709669e+00	3.696227e-01	-4.303570e-03	3.707517e+00	-3.711821e+00
0.04914      	4.124617e+00	4.110187e-01	1.871609e-03	4.125553e+00	-4.123681e+00
0.04941      	3.861849e+00	3.849004e-01	4.274134e-04	3.862063e+00	-3.861636e+00
0.04968      	3.594418e+00	3.581809e-01	-3.594337e-03	3.592621e+00	-3.596215e+00
0.04995      	3.390796e+00	3.378479e-01	1.224846e-03	3.391409e+00	-3.390184e+00
0.05022      	3.680320e+00	3.666555e-01	-7.050512e-03	3.676794e+00	-3.683845e+00
0.05049      	3.672223e+00	3.658888e-01	9.127678e-04	3.672679e+00	-3.671766e+00
0.05076      	3.821256e+00	3.808123e-01	1.207763e-02	3.827295e+00	-3.815217e+00
0.05103      	4.033707e+00	4.019778e-01	-3.588767e-03	4.031912e+00	-4.035501e+00
0.0513       	4.321769e+00	4.307082e-01	4.842840e-03	4.324190e+00	-4.319347e+00
0.05157      	3.614071e+00	3.602663e-01	4.335720e-03	3.616239e+00	-3.611903e+00
0.05184      	3.820583e+00	3.807782e-01	9.284908e-04	3.821047e+00	-3.820118e+00
0.05211      	4.478357e+00	4.462704e-01	4.634925e-03	4.480674e+00	-4.476039e+00
0.05238      	3.546970e+00	3.534731e-01	-3.913191e-03	3.545014e+00	-3.548927e+00
0.05265      	3.482960e+00	3.470897e-01	-1.526239e-02	3.475329e+00	-3.490591e+00
0.05292      	3.871084e+00	3.857517e-01	5.458679e-03	3.873814e+00	-3.868355e+00
0.05319      	3.885418e+00	3.872693e-01	-2.305063e-03	3.884266e+00	-3.886571e+00
0.05346      	3.628216e+00	3.614734e-01	1.631403e-02	3.636373e+00	-3.620059e+00
0.05373      	3.715787e+00	3.702435e-01	-8.735973e-03	3.711419e+00	-3.720155e+00
0.054        	3.913531e+00	3.898803e-01	8.490664e-03	3.917776e+00	-3.909286e+00
0.05427      	3.556714e+00	3.544155e-01	-1.006738e-02	3.551680e+00	-3.561747e+00
0.05454      	3.910677e+00	3.896638e-01	-6.401511e-03	3.907477e+00	-3.913878e+00
0.05481      	3.642794e+00	3.630996e-01	-3.223916e-03	3.641182e+00	-3.644406e+00
0.05508      	3.139503e+00	3.128972e-01	1.176795e-03	3.140091e+00	-3.138914e+00
0.05535      	3.542942e+00	3.530524e-01	-5.672623e-03	3.540105e+00	-3.545778e+00
0.05562      	3.730833e+00	3.717761e-01	7.220328e-03	3.734444e+00	-3.727223e+00
0.05589      	4.090282e+00	4.075107e-01	1.593192e-02	4.098248e+00	-4.082316e+00
0.05616      	3.222191e+00	3.210960e-01	-1.038715e-02	3.216997e+00	-3.227384e+00
0.05643      	4.574643e+00	4.557735e-01	1.301024e-02	4.581148e+00	-4.568138e+00
0.0567       	3.617610e+00	3.604509e-01	-9.386843e-03	3.612916e+00	-3.622303e+00
0.05697      	4.034031e+00	4.020036e-01	3.556022e-03	4.035809e+00	-4.032253e+00
0.05724      	3.251610e+00	3.240739e-01	-5.007530e-03	3.249107e+00	-3.254114e+00
0.05751      	4.156489e+00	4.141472e-01	-5.543745e-03	4.153717e+00	-4.159261e+00
0.05778      	3.402908e+00	3.391050e-01	-7.595092e-03	3.399111e+00	-3.406706e+00
0.05805      	3.597635e+00	3.584524e-01	1.390694e-02	3.604589e+00	-3.590682e+00
0.05832      	3.917859e+00	3.905382e-01	-7.167246e-03	3.914275e+00	-3.921443e+00
0.05859      	3.401859e+00	3.390114e-01	-1.312162e-02	3.395298e+00	-3.408419e+00
0.05886      	3.609689e+00	3.597373e-01	-8.726512e-03	3.605325e+00	-3.614052e+00
0.05913      	3.298060e+00	3.286542e-01	1.477337e-02	3.305446e+00	-3.290673e+00
0.0594       	4.007523e+00	3.994511e-01	-4.493724e-03	4.005276e+00	-4.009770e+00
0.05967      	4.003229e+00	3.989093e-01	-2.288694e-03	4.002084e+00	-4.004373e+00
0.05994      	3.591344e+00	3.579152e-01	1.234482e-03	3.591961e+00	-3.590727e+00
0.06021      	3.947429e+00	3.933541e-01	4.026092e-04	3.947631e+00	-3.947228e+00
0.06048      	4.102974e+00	4.089225e-01	5.650670e-03	4.105799e+00	-4.100149e+00
0.06075      	3.340760e+00	3.328558e-01	-4.604343e-04	3.340529e+00	-3.340990e+00
0.06102      	4.003117e+00	3.989530e-01	1.048061e-02	4.008357e+00	-3.997877e+00
0.06129      	3.318681e+00	3.307164e-01	-5.136494e-03	3.316113e+00	-3.321250e+00
0.06156      	3.930971e+00	3.917265e-01	3.725300e-03	3.932834e+00	-3.929109e+00
0.06183      	3.299594e+00	3.288538e-01	-1.549581e-02	3.291846e+00	-3.307342e+00
0.0621       	4.161323e+00	4.146360e-01	2.565114e-03	4.162606e+00	-4.160040e+00
0.06237      	3.447312e+00	3.435765e-01	1.495618e-02	3.454791e+00	-3.439834e+00
0.06264      	3.758910e+00	3.745184e-01	-2.131532e-03	3.757844e+00	-3.759976e+00
0.06291      	3.458659e+00	3.445513e-01	-5.446280e-03	3.455936e+00	-3.461382e+00
0.06318      	4.227468e+00	4.212418e-01	-2.552569e-04	4.227341e+00	-4.227596e+00
0.06345      	3.986533e+00	3.973849e-01	7.083850e-03	3.990075e+00	-3.982991e+00
0.06372      	3.798689e+00	3.785080e-01	-3.912006e-04	3.798494e+00	-3.798885e+00
0.06399      	4.035788e+00	4.021690e-01	7.330484e-03	4.039453e+00	-4.032123e+00
0.06426      	3.812477e+00	3.798516e-01	-1.348142e-02	3.805737e+00	-3.819218e+00
0.06453      	3.632690e+00	3.620871e-01	-4.206926e-03	3.630586e+00	-3.634793e+00
0.0648       	3.999415e+00	3.984727e-01	1.380265e-02	4.006317e+00	-3.992514e+00
0.06507      	4.160965e+00	4.146477e-01	-1.841193e-03	4.160045e+00	-4.161886e+00
0.06534      	3.861411e+00	3.848085e-01	7.520871e-03	3.865172e+00	-3.857651e+00
0.06561      	3.652167e+00	3.639938e-01	-9.193668e-03	3.647570e+00	-3.656763e+00
0.06588      	4.031169e+00	4.017032e-01	1.369903e-03	4.031854e+00	-4.030484e+00
0.06615      	3.525616e+00	3.513785e-01	1.370616e-03	3.526301e+00	-3.524930e+00
0.06642      	3.378041e+00	3.365268e-01	3.455764e-03	3.379769e+00	-3.376314e+00
0.06669      	4.335356e+00	4.321072e-01	-4.395602e-03	4.333158e+00	-4.337554e+00
0.06696      	3.753375e+00	3.740790e-01	-1.236728e-02	3.747192e+00	-3.759559e+00
0.06723      	3.480486e+00	3.467619e-01	8.729042e-03	3.484851e+00	-3.476121e+00
0.0675       	3.892660e+00	3.878480e-01	5.820617e-04	3.892951e+00	-3.892369e+00
0.06777      	3.946454e+00	3.932587e-01	3.846119e-03	3.948377e+00	-3.944531e+00
0.06804      	3.761313e+00	3.749099e-01	5.092768e-03	3.763859e+00	-3.758766e+00
0.06831      	3.442994e+00	3.430557e-01	-1.034460e-02	3.437822e+00	-3.448166e+00
0.06858      	3.859392e+00	3.846234e-01	3.246276e-03	3.861015e+00	-3.857769e+00
0.06885      	3.522181e+00	3.510049e-01	-1.445247e-02	3.514954e+00	-3.529407e+00
0.06912      	3.997930e+00	3.983881e-01	-6.753389e-03	3.994554e+00	-4.001307e+00
0.06939      	3.808285e+00	3.794435e-01	1.464395e-02	3.815607e+00	-3.800963e+00
0.06966      	3.677297e+00	3.665145e-01	2.753886e-04	3.677435e+00	-3.677159e+00
0.06993      	4.217821e+00	4.202027e-01	6.633352e-06	4.217825e+00	-4.217818e+00
0.0702       	3.485168e+00	3.473588e-01	-7.413636e-03	3.481461e+00	-3.488875e+00
0.07047      	3.854946e+00	3.841724e-01	5.207837e-03	3.857550e+00	-3.852342e+00
0.07074      	3.860919e+00	3.846158e-01	4.863461e-04	3.861162e+00	-3.860676e+00
0.07101      	4.212137e+00	4.197877e-01	3.927576e-03	4.214101e+00	-4.210174e+00
0.07128      	4.495265e+00	4.479325e-01	-4.621046e-03	4.492954e+00	-4.497575e+00
0.07155      	3.987964e+00	3.974012e-01	1.491649e-03	3.988709e+00	-3.987218e+00
0.07182      	3.930366e+00	3.916310e-01	6.765350e-03	3.933749e+00	-3.926983e+00
0.07209      	4.157319e+00	4.142799e-01	-9.470007e-04	4.156845e+00	-4.157792e+00
0.07236      	3.475455e+00	3.464361e-01	-1.453188e-02	3.468189e+00	-3.482721e+00
0.07263      	3.540943e+00	3.527769e-01	4.464577e-03	3.543176e+00	-3.538711e+00
0.0729       	4.198604e+00	4.183583e-01	1.398931e-02	4.205599e+00	-4.191610e+00
0.07317      	3.774775e+00	3.762132e-01	-2.672459e-03	3.773439e+00	-3.776111e+00
0.07344      	3.668651e+00	3.655185e-01	-5.306980e-03	3.665998e+00	-3.671305e+00
0.07371      	3.813653e+00	3.801425e-01	-7.798431e-03	3.809754e+00	-3.817553e+00
0.07398      	4.174839e+00	4.160766e-01	2.698404e-03	4.176188e+00	-4.173490e+00
0.07425      	4.030827e+00	4.017097e-01	8.194264e-03	4.034924e+00	-4.026730e+00
0.07452      	4.123585e+00	4.109131e-01	-1.330815e-02	4.116930e+00	-4.130239e+00
0.07479      	3.624506e+00	3.612185e-01	1.075713e-02	3.629885e+00	-3.619127e+00
0.07506      	4.035954e+00	4.022152e-01	-1.081288e-02	4.030548e+00	-4.041361e+00
0.07533      	4.335552e+00	4.319776e-01	1.265419e-02	4.341880e+00	-4.329225e+00
0.0756       	4.242445e+00	4.227346e-01	-3.107571e-03	4.240891e+00	-4.243999e+00
0.07587      	4.365984e+00	4.350676e-01	-1.858096e-03	4.365055e+00	-4.366913e+00
0.07614      	4.101551e+00	4.087794e-01	1.004173e-02	4.106572e+00	-4.096530e+00
0.07641      	4.035575e+00	4.021454e-01	-4.522644e-03	4.033313e+00	-4.037836e+00
0.07668      	4.384029e+00	4.368776e-01	-1.916026e-03	4.383071e+00	-4.384987e+00
0.07695      	4.240290e+00	4.225375e-01	-7.199211e-03	4.236690e+00	-4.243890e+00
0.07722      	3.581216e+00	3.568360e-01	6.723487e-03	3.584577e+00	-3.577854e+00
0.07749      	4.814127e+00	4.798208e-01	-4.572686e-03	4.811841e+00	-4.816414e+00
0.07776      	3.774007e+00	3.760757e-01	1.182867e-03	3.774599e+00	-3.773416e+00
0.07803      	4.859752e+00	4.842870e-01	5.015664e-03	4.862260e+00	-4.857245e+00
0.0783       	3.949175e+00	3.935047e-01	4.996038e-03	3.951673e+00	-3.946677e+00
0.07857      	4.783770e+00	4.767132e-01	-1.445175e-02	4.776544e+00	-4.790996e+00
0.07884      	3.971264e+00	3.957311e-01	1.678769e-03	3.972103e+00	-3.970424e+00
0.07911      	4.108745e+00	4.095373e-01	2.863748e-03	4.110176e+00	-4.107313e+00
0.07938      	4.291145e+00	4.275694e-01	1.293177e-03	4.291792e+00	-4.290499e+00
0.07965      	4.041413e+00	4.027340e-01	5.347505e-03	4.044087e+00	-4.038740e+00
0.07992      	4.314718e+00	4.300008e-01	2.714603e-04	4.314853e+00	-4.314582e+00
0.08019      	4.382492e+00	4.366268e-01	3.409023e-03	4.384197e+00	-4.380788e+00
0.08046      	4.771534e+00	4.755386e-01	-1.181040e-02	4.765629e+00	-4.777440e+00
0.08073      	4.734623e+00	4.717166e-01	-2.372164e-03	4.733437e+00	-4.735809e+00
0.081        	4.567118e+00	4.551168e-01	1.120351e-02	4.572720e+00	-4.561516e+00
0.08127      	4.275125e+00	4.259641e-01	-3.849404e-03	4.273201e+00	-4.277050e+00
0.08154      	4.747944e+00	4.732008e-01	4.515440e-03	4.750202e+00	-4.745686e+00
0.08181      	4.498680e+00	4.482963e-01	4.151809e-03	4.500756e+00	-4.496604e+00
0.08208      	5.423347e+00	5.405383e-01	-1.374576e-02	5.416475e+00	-5.430220e+00
0.08235      	4.788596e+00	4.771958e-01	4.568981e-03	4.790881e+00	-4.786312e+00
0.08262      	5.046764e+00	5.029349e-01	3.406895e-03	5.048468e+00	-5.045061e+00
0.08289      	4.689093e+00	4.672954e-01	-7.250090e-03	4.685468e+00	-4.692718e+00
0.08316      	4.215127e+00	4.200937e-01	-1.016844e-02	4.210043e+00	-4.220211e+00
0.08343      	4.789717e+00	4.772648e-01	5.225725e-03	4.792330e+00	-4.787104e+00
0.0837       	4.724975e+00	4.709055e-01	1.784031e-03	4.725867e+00	-4.724083e+00
0.08397      	4.716169e+00	4.699639e-01	-4.138966e-04	4.715962e+00	-4.716376e+00
0.08424      	4.868016e+00	4.851520e-01	9.955822e-03	4.872994e+00	-4.863038e+00
0.08451      	4.988299e+00	4.970371e-01	6.061708e-04	4.988602e+00	-4.987996e+00
0.08478      	4.753779e+00	4.737113e-01	-6.559688e-04	4.753451e+00	-4.754107e+00
0.08505      	5.377418e+00	5.359180e-01	1.601488e-02	5.385425e+00	-5.369411e+00
0.08532      	4.860623e+00	4.843045e-01	-4.828725e-03	4.858208e+00	-4.863037e+00
0.08559      	5.368484e+00	5.349962e-01	5.499327e-03	5.371233e+00	-5.365734e+00
0.08586      	4.530804e+00	4.514522e-01	5.329363e-04	4.531071e+00	-4.530538e+00
0.08613      	5.269986e+00	5.251514e-01	1.018908e-03	5.270496e+00	-5.269477e+00
0.0864       	5.173516e+00	5.156324e-01	-6.223537e-03	5.170404e+00	-5.176628e+00
0.08667      	4.869727e+00	4.852442e-01	-1.238401e-02	4.863535e+00	-4.875919e+00
0.08694      	5.495490e+00	5.476359e-01	1.149834e-02	5.501239e+00	-5.489741e+00
0.08721      	4.899634e+00	4.882710e-01	-5.374775e-03	4.896947e+00	-4.902322e+00
0.08748      	5.700265e+00	5.680667e-01	8.267693e-03	5.704399e+00	-5.696131e+00
0.08775      	5.481435e+00	5.461166e-01	5.226900e-03	5.484048e+00	-5.478821e+00
0.08802      	5.571114e+00	5.552491e-01	-1.041357e-03	5.570594e+00	-5.571635e+00
0.08829      	4.958236e+00	4.941071e-01	-1.307650e-02	4.951698e+00	-4.964774e+00
0.08856      	5.365047e+00	5.346196e-01	-1.647703e-03	5.364223e+00	-5.365871e+00
0.08883      	5.308331e+00	5.290049e-01	1.179535e-02	5.314229e+00	-5.302433e+00
0.0891       	5.154370e+00	5.135458e-01	-6.238145e-03	5.151251e+00	-5.157489e+00
0.08937      	5.849389e+00	5.828620e-01	8.032774e-04	5.849790e+00	-5.848987e+00
0.08964      	5.760187e+00	5.740013e-01	2.683252e-03	5.761528e+00	-5.758845e+00
0.08991      	5.603240e+00	5.583969e-01	-2.153319e-03	5.602164e+00	-5.604317e+00
0.09018      	5.578840e+00	5.558668e-01	-2.843725e-03	5.577418e+00	-5.580262e+00
0.09045      	5.887161e+00	5.867093e-01	2.408254e-03	5.888365e+00	-5.885957e+00
0.09072      	5.360340e+00	5.341340e-01	-1.391139e-03	5.359645e+00	-5.361036e+00
0.09099      	5.914752e+00	5.894630e-01	1.433702e-03	5.915469e+00	-5.914035e+00
0.09126      	5.797252e+00	5.776376e-01	7.105030e-05	5.797287e+00	-5.797216e+00
0.09153      	5.959075e+00	5.938189e-01	-1.180407e-02	5.953173e+00	-5.964977e+00
0.0918       	6.024073e+00	6.002785e-01	1.296759e-03	6.024721e+00	-6.023424e+00
0.09207      	5.862928e+00	5.842489e-01	8.954983e-03	5.867406e+00	-5.858451e+00
0.09234      	5.841376e+00	5.820466e-01	-2.317783e-03	5.840217e+00	-5.842535e+00
0.09261      	6.039156e+00	6.018132e-01	-6.234937e-03	6.036039e+00	-6.042274e+00
0.09288      	6.404010e+00	6.381492e-01	-6.404564e-03	6.400807e+00	-6.407212e+00
0.09315      	6.214134e+00	6.192587e-01	1.033769e-02	6.219303e+00	-6.208966e+00
0.09342      	6.238065e+00	6.216202e-01	-8.285936e-03	6.233922e+00	-6.242208e+00
0.09369      	6.022428e+00	6.002460e-01	1.617909e-02	6.030517e+00	-6.014338e+00
0.09396      	6.226833e+00	6.204925e-01	-7.941931e-03	6.222862e+00	-6.230804e+00
0.09423      	6.945863e+00	6.920780e-01	-1.000917e-02	6.940858e+00	-6.950867e+00
0.0945       	5.752236e+00	5.732840e-01	-8.301459e-03	5.748085e+00	-5.756387e+00
0.09477      	6.159034e+00	6.137962e-01	-2.400393e-04	6.158914e+00	-6.159154e+00
0.09504      	6.085068e+00	6.064411e-01	-3.764065e-03	6.083186e+00	-6.086950e+00
0.09531      	6.559346e+00	6.535452e-01	9.038618e-03	6.563865e+00	-6.554826e+00
0.09558      	6.047538e+00	6.026995e-01	-8.398335e-03	6.043339e+00	-6.051738e+00
0.09585      	5.981349e+00	5.961308e-01	1.204227e-02	5.987370e+00	-5.975328e+00
0.09612      	6.928262e+00	6.904474e-01	2.639897e-03	6.929582e+00	-6.926942e+00
0.09639      	6.360767e+00	6.337078e-01	-1.778346e-03	6.359878e+00	-6.361656e+00
0.09666      	6.550052e+00	6.527445e-01	3.508146e-03	6.551806e+00	-6.548298e+00
0.09693      	6.891255e+00	6.868368e-01	6.135126e-03	6.894322e+00	-6.888187e+00
0.0972       	7.201965e+00	7.175946e-01	5.423302e-03	7.204677e+00	-7.199254e+00
0.09747      	6.451245e+00	6.428372e-01	-1.493113e-02	6.443779e+00	-6.458710e+00
0.09774      	6.970914e+00	6.946849e-01	1.642029e-02	6.979124e+00	-6.962704e+00
0.09801      	6.928652e+00	6.904899e-01	9.563022e-03	6.933433e+00	-6.923870e+00
0.09828      	6.997881e+00	6.973559e-01	5.610909e-04	6.998161e+00	-6.997600e+00
0.09855      	6.654113e+00	6.630912e-01	-2.255764e-03	6.652986e+00	-6.655241e+00
0.09882      	7.016133e+00	6.991226e-01	-6.523984e-04	7.015807e+00	-7.016459e+00
0.09909      	6.747672e+00	6.724004e-01	2.698379e-03	6.749021e+00	-6.746323e+00